(written by ASE)

257 atoms
2 atom types

0.0                   14.08  xlo xhi
0.0                   14.08  ylo yhi
0.0                   14.08  zlo zhi

Atoms # atomic

     1   2   -0.041584141427178319   -0.041584141427178117   -0.041584141427178881
     2   2   -0.041584141427179921       1.801584141427182      1.8015841414271836
     3   2      1.8015841414271827   -0.041584141427179706      1.8015841414271836
     4   2      1.8015841414271825      1.8015841414271836   -0.041584141427180213
     5   2  -0.0048005964834192524   -0.004800596483418111      3.5310009407121283
     6   2  -0.0017197278830903343      1.7617197278830912      5.2817748743493809
     7   2      1.7617197278830909  -0.0017197278830903403      5.2817748743493809
     8   2      1.7648005964834197      1.7648005964834195      3.5310009407121257
     9   2 -0.00015681655652375511  -0.0001568165565243557      7.0401114873258264
    10   2 -0.00015681655652153802      1.7601568165565225      8.7998885126741726
    11   2      1.7601568165565231 -0.00015681655652260339      8.7998885126741726
    12   2      1.7601568165565233      1.7601568165565229      7.0401114873258273
    13   2  -0.0017197278830897271  -0.0017197278830890705      10.558225125650626
    14   2  -0.0048005964834182827      1.7648005964834217       12.30899905928788
    15   2      1.7648005964834204  -0.0048005964834184137      12.308999059287881
    16   2      1.7617197278830903      1.7617197278830901      10.558225125650623
    17   2   -0.004800596483417522      3.5310009407121257  -0.0048005964834185672
    18   2  -0.0017197278830898626      5.2817748743493773      1.7617197278830914
    19   2      1.7648005964834197      3.5310009407121243      1.7648005964834204
    20   2      1.7617197278830905      5.2817748743493773  -0.0017197278830891648
    21   2  -0.0046841782613350142      3.5371375919001662      3.5371375919001666
    22   2 -0.00067597776906597878      5.2861083213656448      5.2861083213656448
    23   2       1.761735784195408      3.5235564275339724      5.2843120224013065
    24   2      1.7617357841954067      5.2843120224013083      3.5235564275339724
    25   2 -0.00034784470134143397      3.5210933533382955      7.0406649289793286
    26   2 -0.00080257498855343693      5.2817308774086529      8.7985074104618057
    27   2      1.7603478447013419      3.5210933533382938       8.799335071020673
    28   2      1.7608025749885545      5.2817308774086538       7.041492589538195
    29   2  -0.0017357841954067073      3.5235564275339719      10.555687977598692
    30   2  -0.0017357841954061405      5.2843120224013074      12.316443572466026
    31   2      1.7646841782613356      3.5371375919001675      12.302862408099832
    32   2      1.7606759777690686       5.286108321365643      10.553891678634358
    33   2 -0.00015681655652283975      7.0401114873258273 -0.00015681655652319089
    34   2 -0.00015681655652183382      8.7998885126741726      1.7601568165565227
    35   2      1.7601568165565236      7.0401114873258273       1.760156816556522
    36   2      1.7601568165565231      8.7998885126741744 -0.00015681655652150477
    37   2 -0.00034784470134091854      7.0406649289793313      3.5210933533382947
    38   2 -0.00080257498855286187      8.7985074104618075      5.2817308774086529
    39   2       1.760802574988555       7.041492589538195      5.2817308774086564
    40   2      1.7603478447013428       8.799335071020673      3.5210933533382942
    41   2 -0.00051443709409433754      7.0414095859012411      7.0414095859012411
    42   2 -0.00051443709409508737      8.7985904140987614      8.7985904140987614
    43   2      1.7605144370940977      7.0414095859012402      8.7985904140987614
    44   2      1.7605144370940986      8.7985904140987614      7.0414095859012402
    45   2  -0.0008025749885519222      7.0414925895381959      10.558269122591348
    46   2 -0.00034784470134114107      8.7993350710206748      12.318906646661709
    47   2      1.7603478447013414      7.0406649289793286      12.318906646661711
    48   2      1.7608025749885534       8.798507410461804      10.558269122591348
    49   2  -0.0017197278830891653      10.558225125650626  -0.0017197278830874006
    50   2  -0.0048005964834184935      12.308999059287881      1.7648005964834219
    51   2      1.7617197278830905      10.558225125650623      1.7617197278830905
    52   2      1.7648005964834215       12.30899905928788  -0.0048005964834178967
    53   2  -0.0017357841954073279      10.555687977598692      3.5235564275339719
    54   2  -0.0017357841954065156      12.316443572466026      5.2843120224013056
    55   2      1.7606759777690695      10.553891678634358       5.286108321365643
    56   2      1.7646841782613354      12.302862408099834      3.5371375919001675
    57   2 -0.00080257498855179708      10.558269122591348      7.0414925895381932
    58   2 -0.00034784470134235039      12.318906646661709      8.7993350710206748
    59   2       1.760802574988555      10.558269122591346       8.798507410461804
    60   2      1.7603478447013425      12.318906646661709      7.0406649289793295
    61   2  -0.0006759777690659674      10.553891678634361      10.553891678634358
    62   2   -0.004684178261332929      12.302862408099836      12.302862408099836
    63   2      1.7617357841954091      10.555687977598696       12.31644357246603
    64   2      1.7617357841954082       12.31644357246603      10.555687977598696
    65   2      3.5310009407121266  -0.0048005964834190902  -0.0048005964834186322
    66   2      3.5310009407121266      1.7648005964834195      1.7648005964834199
    67   2      5.2817748743493809  -0.0017197278830901423      1.7617197278830905
    68   2      5.2817748743493773      1.7617197278830914  -0.0017197278830904167
    69   2      3.5371375919001666  -0.0046841782613346594      3.5371375919001662
    70   2      3.5235564275339719       1.761735784195408      5.2843120224013074
    71   2      5.2861083213656448 -0.00067597776906569613      5.2861083213656448
    72   2      5.2843120224013065      1.7617357841954073      3.5235564275339728
    73   2      3.5210933533382964 -0.00034784470134206427      7.0406649289793313
    74   2      3.5210933533382942      1.7603478447013425       8.799335071020673
    75   2      5.2817308774086547 -0.00080257498855319223      8.7985074104618093
    76   2      5.2817308774086564      1.7608025749885536      7.0414925895381959
    77   2      3.5235564275339724  -0.0017357841954073075      10.555687977598696
    78   2      3.5371375919001666      1.7646841782613363      12.302862408099834
    79   2      5.2843120224013074  -0.0017357841954072297      12.316443572466026
    80   2       5.286108321365643      1.7606759777690699      10.553891678634358
    81   2      3.5371375919001649      3.5371375919001662  -0.0046841782613347618
    82   2      3.5235564275339719      5.2843120224013065      1.7617357841954067
    83   2      5.2843120224013065      3.5235564275339728      1.7617357841954071
    84   2       5.286108321365643       5.286108321365643 -0.00067597776906593054
    85   2       3.523884290838299      3.5238842908382995      3.5238842908382986
    86   2      3.5215714892669356      5.2819850724008264      5.2819850724008264
    87   2      5.2819850724008273      3.5215714892669365      5.2819850724008273
    88   2      5.2819850724008273      5.2819850724008273      3.5215714892669365
    89   2      3.5212405728357918      3.5212405728357918      7.0414509764795463
    90   2      3.5216567154392595      5.2821294524663989      8.7982956159105612
    91   2      5.2821294524663989      3.5216567154392586      8.7982956159105576
    92   2       5.281157690744239       5.281157690744239      7.0402822647309238
    93   2      3.5245647924123102      3.5245647924123107      10.553843662122704
    94   2      3.5245647924123107      5.2861563378772942      12.315435207587694
    95   2      5.2861563378772942      3.5245647924123111      12.315435207587694
    96   2      5.2827022097023661      5.2827022097023653      10.557297790297635
    97   2      3.5210933533382964      7.0406649289793313 -0.00034784470134160235
    98   2      3.5210933533382938       8.799335071020673      1.7603478447013428
    99   2      5.2817308774086538      7.0414925895381941      1.7608025749885545
   100   2      5.2817308774086564      8.7985074104618075 -0.00080257498855191786
   101   2      3.5212405728357927      7.0414509764795463      3.5212405728357914
   102   2      3.5216567154392595      8.7982956159105576       5.282129452466398
   103   2      5.2811576907442381      7.0402822647309238      5.2811576907442381
   104   2      5.2821294524663998       8.798295615910563      3.5216567154392582
   105   2      3.5212636889943441      7.0405186195146641      7.0405186195146658
   106   2      3.5212636889943458       8.799481380485334      8.7994813804853358
   107   2      5.2813081127917716      7.0408036737411424      8.7991963262588566
   108   2      5.2813081127917698      8.7991963262588548      7.0408036737411424
   109   2      3.5216567154392582      7.0417043840894431      10.557870547533605
   110   2      3.5212405728357927      8.7985490235204562      12.318759427164204
   111   2      5.2821294524664006      7.0417043840894422      12.318343284560745
   112   2      5.2811576907442408      8.7997177352690734      10.558842309255761
   113   2      3.5235564275339724      10.555687977598696  -0.0017357841954062036
   114   2      3.5371375919001666      12.302862408099834      1.7646841782613361
   115   2      5.2861083213656439      10.553891678634358      1.7606759777690686
   116   2      5.2843120224013092      12.316443572466026  -0.0017357841954075328
   117   2      3.5245647924123102      10.553843662122709      3.5245647924123102
   118   2      3.5245647924123098      12.315435207587694      5.2861563378772933
   119   2      5.2827022097023661      10.557297790297635      5.2827022097023661
   120   2      5.2861563378772942      12.315435207587694      3.5245647924123094
   121   2      3.5216567154392595      10.557870547533602      7.0417043840894422
   122   2      3.5212405728357932      12.318759427164204       8.798549023520458
   123   2      5.2811576907442408      10.558842309255759      8.7997177352690734
   124   2      5.2821294524664006      12.318343284560745      7.0417043840894422
   125   2      3.5215714892669383      10.558014927599171      10.558014927599171
   126   2      3.5238842908382995      12.316115709161702      12.316115709161702
   127   2      5.2819850724008273      10.558014927599169      12.318428510733067
   128   2      5.2819850724008282      12.318428510733064      10.558014927599176
   129   2      7.0401114873258255 -0.00015681655652389416 -0.00015681655652367008
   130   2      7.0401114873258273      1.7601568165565231      1.7601568165565229
   131   2      8.7998885126741726 -0.00015681655652222983      1.7601568165565227
   132   2      8.7998885126741708      1.7601568165565231 -0.00015681655652137583
   133   2      7.0406649289793313 -0.00034784470134116764      3.5210933533382964
   134   2      7.0414925895381959      1.7608025749885543      5.2817308774086564
   135   2      8.7985074104618075 -0.00080257498855334846      5.2817308774086547
   136   2       8.799335071020673      1.7603478447013423      3.5210933533382942
   137   2      7.0414095859012411 -0.00051443709409262157      7.0414095859012411
   138   2       7.041409585901242      1.7605144370940973       8.798590414098765
   139   2      8.7985904140987614 -0.00051443709409495846      8.7985904140987614
   140   2      8.7985904140987614      1.7605144370940977      7.0414095859012402
   141   2      7.0414925895381932 -0.00080257498855354991      10.558269122591348
   142   2      7.0406649289793277      1.7603478447013421      12.318906646661711
   143   2       8.799335071020673 -0.00034784470134250364      12.318906646661709
   144   2       8.798507410461804      1.7608025749885541      10.558269122591348
   145   2      7.0406649289793313      3.5210933533382955 -0.00034784470134138399
   146   2      7.0414925895381941      5.2817308774086564      1.7608025749885543
   147   2       8.799335071020673      3.5210933533382938      1.7603478447013428
   148   2      8.7985074104618057      5.2817308774086547 -0.00080257498855306419
   149   2      7.0414509764795454      3.5212405728357932      3.5212405728357927
   150   2      7.0402822647309238      5.2811576907442399      5.2811576907442381
   151   2      8.7982956159105576      3.5216567154392595      5.2821294524663989
   152   2      8.7982956159105576      5.2821294524663998      3.5216567154392577
   153   2      7.0405186195146641      3.5212636889943441      7.0405186195146658
   154   2      7.0408036737411424      5.2813081127917716      8.7991963262588566
   155   2       8.799481380485334      3.5212636889943467      8.7994813804853358
   156   2      8.7991963262588548      5.2813081127917716      7.0408036737411424
   157   2      7.0417043840894413      3.5216567154392595      10.557870547533605
   158   2      7.0417043840894422      5.2821294524664006      12.318343284560745
   159   2       8.798549023520458      3.5212405728357941      12.318759427164204
   160   2      8.7997177352690734      5.2811576907442417      10.558842309255761
   161   2      7.0414095859012411       7.041409585901242 -0.00051443709409290184
   162   2      7.0414095859012411      8.7985904140987632      1.7605144370940979
   163   2      8.7985904140987632       7.041409585901242      1.7605144370940977
   164   2      8.7985904140987614      8.7985904140987614  -0.0005144370940949988
   165   2      7.0405186195146641      7.0405186195146676      3.5212636889943436
   166   2      7.0408036737411424      8.7991963262588548      5.2813081127917716
   167   2      8.7991963262588548      7.0408036737411424      5.2813081127917698
   168   2      8.7994813804853358      8.7994813804853358      3.5212636889943463
   169   2      7.0404033937143984      7.0404033937143993       7.040403393714401
   170   2       7.040403393714401      8.7995966062856024      8.7995966062856024
   171   2      8.7995966062856024       7.040403393714401      8.7995966062856024
   172   2      8.7995966062856041      8.7995966062856041      7.0404033937143993
   173   2      7.0408036737411415      7.0408036737411415       10.55869188720823
   174   2      7.0405186195146676      8.7994813804853358      12.318736311005656
   175   2      8.7994813804853358      7.0405186195146676      12.318736311005656
   176   2      8.7991963262588584      8.7991963262588584      10.558691887208232
   177   2      7.0414925895381968      10.558269122591348 -0.00080257498855260264
   178   2      7.0406649289793295      12.318906646661709      1.7603478447013419
   179   2       8.798507410461804      10.558269122591348      1.7608025749885545
   180   2      8.7993350710206748      12.318906646661709 -0.00034784470134182146
   181   2      7.0417043840894422      10.557870547533605        3.52165671543926
   182   2      7.0417043840894422      12.318343284560745      5.2821294524664006
   183   2      8.7997177352690734      10.558842309255763      5.2811576907442408
   184   2       8.798549023520458      12.318759427164204      3.5212405728357927
   185   2      7.0408036737411432       10.55869188720823      7.0408036737411432
   186   2      7.0405186195146658      12.318736311005656      8.7994813804853358
   187   2      8.7991963262588584       10.55869188720823      8.7991963262588548
   188   2      8.7994813804853358      12.318736311005656      7.0405186195146676
   189   2      7.0402822647309247      10.558842309255761      10.558842309255761
   190   2      7.0414509764795472      12.318759427164204      12.318759427164204
   191   2      8.7982956159105612      10.557870547533605      12.318343284560743
   192   2      8.7982956159105612      12.318343284560743      10.557870547533604
   193   2      10.558225125650624  -0.0017197278830887121  -0.0017197278830871968
   194   2      10.558225125650624      1.7617197278830903      1.7617197278830905
   195   2       12.30899905928788  -0.0048005964834184371      1.7648005964834219
   196   2       12.30899905928788      1.7648005964834219  -0.0048005964834179895
   197   2      10.555687977598696  -0.0017357841954080836      3.5235564275339724
   198   2      10.553891678634358      1.7606759777690693       5.286108321365643
   199   2      12.316443572466026  -0.0017357841954068753      5.2843120224013092
   200   2      12.302862408099832      1.7646841782613361      3.5371375919001671
   201   2      10.558269122591348 -0.00080257498855267366      7.0414925895381941
   202   2      10.558269122591346      1.7608025749885547      8.7985074104618093
   203   2      12.318906646661709 -0.00034784470134175793       8.799335071020673
   204   2      12.318906646661709      1.7603478447013423      7.0406649289793295
   205   2      10.553891678634358 -0.00067597776906575837      10.553891678634358
   206   2      10.555687977598696       1.761735784195408       12.31644357246603
   207   2      12.302862408099834  -0.0046841782613317381      12.302862408099836
   208   2       12.31644357246603      1.7617357841954087      10.555687977598696
   209   2      10.555687977598696      3.5235564275339732  -0.0017357841954062298
   210   2      10.553891678634358      5.2861083213656448      1.7606759777690677
   211   2      12.302862408099834      3.5371375919001675      1.7646841782613363
   212   2       12.31644357246603      5.2843120224013074  -0.0017357841954062537
   213   2      10.553843662122704      3.5245647924123116      3.5245647924123102
   214   2      10.557297790297635      5.2827022097023661      5.2827022097023661
   215   2      12.315435207587694      3.5245647924123098      5.2861563378772933
   216   2      12.315435207587694      5.2861563378772942      3.5245647924123094
   217   2      10.557870547533602      3.5216567154392586      7.0417043840894422
   218   2      10.558842309255763      5.2811576907442408      8.7997177352690734
   219   2      12.318759427164204      3.5212405728357914      8.7985490235204544
   220   2      12.318343284560742      5.2821294524664006      7.0417043840894404
   221   2      10.558014927599171      3.5215714892669383      10.558014927599171
   222   2      10.558014927599171      5.2819850724008273      12.318428510733067
   223   2        12.3161157091617       3.523884290838299      12.316115709161705
   224   2      12.318428510733067      5.2819850724008246      10.558014927599169
   225   2      10.558269122591348      7.0414925895381932 -0.00080257498855351305
   226   2      10.558269122591348      8.7985074104618093       1.760802574988555
   227   2      12.318906646661709      7.0406649289793304      1.7603478447013421
   228   2      12.318906646661709       8.799335071020673 -0.00034784470134230529
   229   2      10.557870547533605      7.0417043840894422      3.5216567154392595
   230   2      10.558842309255763      8.7997177352690734      5.2811576907442408
   231   2      12.318343284560745      7.0417043840894404      5.2821294524664006
   232   2      12.318759427164204      8.7985490235204562      3.5212405728357936
   233   2       10.55869188720823      7.0408036737411441      7.0408036737411432
   234   2       10.55869188720823      8.7991963262588584      8.7991963262588548
   235   2      12.318736311005656      7.0405186195146676      8.7994813804853358
   236   2      12.318736311005656      8.7994813804853358      7.0405186195146676
   237   2      10.558842309255764      7.0402822647309229      10.558842309255761
   238   2      10.557870547533605      8.7982956159105612      12.318343284560743
   239   2       12.31875942716421      7.0414509764795437      12.318759427164204
   240   2      12.318343284560743      8.7982956159105612      10.557870547533605
   241   2      10.553891678634361      10.553891678634361 -0.00067597776906576617
   242   2      10.555687977598696      12.316443572466026      1.7617357841954082
   243   2      12.316443572466031      10.555687977598696      1.7617357841954084
   244   2      12.302862408099838      12.302862408099838  -0.0046841782613319376
   245   2      10.558014927599171      10.558014927599171      3.5215714892669379
   246   2      10.558014927599173      12.318428510733064      5.2819850724008273
   247   2      12.318428510733067      10.558014927599169      5.2819850724008273
   248   2      12.316115709161702      12.316115709161702      3.5238842908383008
   249   2      10.558842309255763      10.558842309255763      7.0402822647309238
   250   2      10.557870547533605      12.318343284560743      8.7982956159105576
   251   2      12.318343284560743      10.557870547533605       8.798295615910563
   252   2      12.318759427164208      12.318759427164204      7.0414509764795437
   253   2      10.557297790297637      10.557297790297637      10.557297790297637
   254   2      10.553843662122711      12.315435207587694      12.315435207587694
   255   2      12.315435207587694      10.553843662122711      12.315435207587694
   256   2       12.31543520758769      12.315435207587694      10.553843662122711
   257   1     0.88000000000000189     0.88000000000000189     0.88000000000000267
